
Host: kant

Timers On : Wed Oct 19 20:54:39 2022
Timers Off: Wed Oct 19 20:54:40 2022

Wall Time:        0.68 seconds

                                                       Time (seconds)
Module                                       User      System        Wall        Calls

--------------------------------------------------------------------------------------

**************************************************************************************

Host: kant

Timers On : Wed Oct 19 20:55:28 2022
Timers Off: Wed Oct 19 20:55:29 2022

Wall Time:        0.68 seconds

                                                       Time (seconds)
Module                                       User      System        Wall        Calls

--------------------------------------------------------------------------------------

**************************************************************************************

Host: kant

Timers On : Wed Oct 19 21:05:09 2022
Timers Off: Wed Oct 19 21:05:11 2022

Wall Time:        2.28 seconds

                                                       Time (seconds)
Module                                       User      System        Wall        Calls

--------------------------------------------------------------------------------------

**************************************************************************************

Host: kant

Timers On : Wed Oct 19 21:24:20 2022
Timers Off: Wed Oct 19 21:24:23 2022

Wall Time:        2.15 seconds

                                                       Time (seconds)
Module                                       User      System        Wall        Calls

--------------------------------------------------------------------------------------

**************************************************************************************

Host: kant

Timers On : Wed Oct 19 21:25:29 2022
Timers Off: Wed Oct 19 21:25:32 2022

Wall Time:        3.16 seconds

                                                       Time (seconds)
Module                                       User      System        Wall        Calls
DFH: sparsity prep                  :      0.033u      0.000s      0.019w      2 calls
DFH: initialize()                   :      0.167u      0.000s      0.111w      2 calls
DFH: AO Construction                :      0.000u      0.000s      0.000w      2 calls
DFH: AO-Met. Contraction            :      0.000u      0.000s      0.000w      2 calls
HF: Form core H                     :      0.000u      0.000s      0.040w      2 calls
HF: Form S/X                        :      0.000u      0.000s      0.000w      2 calls
HF: Guess                           :      0.250u      0.000s      0.155w      2 calls
SAD Guess                           :      0.200u      0.000s      0.120w      2 calls
HF: Form G                          :      0.000u      0.000s      0.007w     10 calls
JK: D                               :      0.000u      0.000s      0.000w     10 calls
JK: USO2AO                          :      0.000u      0.000s      0.000w     10 calls
JK: JK                              :      0.000u      0.000s      0.007w     10 calls
DFH: compute_JK()                   :      0.000u      0.000s      0.007w     10 calls
DFH: Grabbing AOs                   :      0.000u      0.000s      0.000w     10 calls
DFH: compute_J                      :      0.000u      0.000s      0.000w     10 calls
DFH: compute_K                      :      0.000u      0.000s      0.006w     10 calls
JK: AO2USO                          :      0.000u      0.000s      0.000w     10 calls
HF: Form F                          :      0.000u      0.000s      0.000w     10 calls
HF: Form D                          :      0.000u      0.000s      0.000w     10 calls
HF: DIIS                            :      0.000u      0.000s      0.009w      8 calls
DIISManager::add_entry              :      0.000u      0.000s      0.006w      8 calls
DIISManager::extrapolate            :      0.000u      0.000s      0.000w      8 calls
bMatrix setup                       :      0.000u      0.000s      0.000w      8 calls
bMatrix pseudoinverse               :      0.000u      0.000s      0.000w      8 calls
New vector                          :      0.000u      0.000s      0.000w      8 calls
HF: Form C                          :      0.000u      0.000s      0.000w      8 calls

--------------------------------------------------------------------------------------
DFH: sparsity prep                  :      0.033u      0.000s      0.019w      2 calls
DFH: initialize()                   :      0.167u      0.000s      0.111w      2 calls
| DFH: AO Construction              :      0.000u      0.000s      0.000w      2 calls
| DFH: AO-Met. Contraction          :      0.000u      0.000s      0.000w      2 calls
HF: Form core H                     :      0.000u      0.000s      0.040w      2 calls
HF: Form S/X                        :      0.000u      0.000s      0.000w      2 calls
HF: Guess                           :      0.250u      0.000s      0.155w      2 calls
| SAD Guess                         :      0.200u      0.000s      0.120w      2 calls
HF: Form G                          :      0.000u      0.000s      0.007w     10 calls
| JK: D                             :      0.000u      0.000s      0.000w     10 calls
| JK: USO2AO                        :      0.000u      0.000s      0.000w     10 calls
| JK: JK                            :      0.000u      0.000s      0.007w     10 calls
| | DFH: compute_JK()               :      0.000u      0.000s      0.007w     10 calls
| | | DFH: Grabbing AOs             :      0.000u      0.000s      0.000w     10 calls
| | | DFH: compute_J                :      0.000u      0.000s      0.000w     10 calls
| | | DFH: compute_K                :      0.000u      0.000s      0.006w     10 calls
| JK: AO2USO                        :      0.000u      0.000s      0.000w     10 calls
HF: Form F                          :      0.000u      0.000s      0.000w     10 calls
HF: Form D                          :      0.000u      0.000s      0.000w     10 calls
HF: DIIS                            :      0.000u      0.000s      0.009w      8 calls
| DIISManager::add_entry            :      0.000u      0.000s      0.006w      8 calls
| DIISManager::extrapolate          :      0.000u      0.000s      0.000w      8 calls
| | bMatrix setup                   :      0.000u      0.000s      0.000w      8 calls
| | bMatrix pseudoinverse           :      0.000u      0.000s      0.000w      8 calls
| | New vector                      :      0.000u      0.000s      0.000w      8 calls
HF: Form C                          :      0.000u      0.000s      0.000w      8 calls

**************************************************************************************

Host: kant

Timers On : Wed Oct 19 21:26:00 2022
Timers Off: Wed Oct 19 21:26:05 2022

Wall Time:        5.31 seconds

                                                       Time (seconds)
Module                                       User      System        Wall        Calls
DFH: sparsity prep                  :      0.033u      0.000s      0.019w      2 calls
DFH: initialize()                   :      0.133u      0.000s      0.080w      2 calls
DFH: AO Construction                :      0.000u      0.000s      0.000w      2 calls
DFH: AO-Met. Contraction            :      0.000u      0.000s      0.000w      2 calls
HF: Form core H                     :      0.000u      0.017s      0.046w      2 calls
HF: Form S/X                        :      0.000u      0.000s      0.000w      2 calls
HF: Guess                           :      0.250u      0.000s      0.147w      2 calls
SAD Guess                           :      0.200u      0.000s      0.115w      2 calls
HF: Form G                          :      0.000u      0.000s      0.001w     10 calls
JK: D                               :      0.000u      0.000s      0.000w     10 calls
JK: USO2AO                          :      0.000u      0.000s      0.000w     10 calls
JK: JK                              :      0.000u      0.000s      0.001w     10 calls
DFH: compute_JK()                   :      0.000u      0.000s      0.000w     10 calls
DFH: Grabbing AOs                   :      0.000u      0.000s      0.000w     10 calls
DFH: compute_J                      :      0.000u      0.000s      0.000w     10 calls
DFH: compute_K                      :      0.000u      0.000s      0.000w     10 calls
JK: AO2USO                          :      0.000u      0.000s      0.000w     10 calls
HF: Form F                          :      0.000u      0.000s      0.000w     10 calls
HF: Form D                          :      0.000u      0.000s      0.000w     10 calls
HF: DIIS                            :      0.000u      0.000s      0.018w      8 calls
DIISManager::add_entry              :      0.000u      0.000s      0.012w      8 calls
DIISManager::extrapolate            :      0.000u      0.000s      0.001w      8 calls
bMatrix setup                       :      0.000u      0.000s      0.000w      8 calls
bMatrix pseudoinverse               :      0.000u      0.000s      0.000w      8 calls
New vector                          :      0.000u      0.000s      0.000w      8 calls
HF: Form C                          :      0.000u      0.000s      0.000w      8 calls

--------------------------------------------------------------------------------------
DFH: sparsity prep                  :      0.033u      0.000s      0.019w      2 calls
DFH: initialize()                   :      0.133u      0.000s      0.080w      2 calls
| DFH: AO Construction              :      0.000u      0.000s      0.000w      2 calls
| DFH: AO-Met. Contraction          :      0.000u      0.000s      0.000w      2 calls
HF: Form core H                     :      0.000u      0.017s      0.046w      2 calls
HF: Form S/X                        :      0.000u      0.000s      0.000w      2 calls
HF: Guess                           :      0.250u      0.000s      0.147w      2 calls
| SAD Guess                         :      0.200u      0.000s      0.115w      2 calls
HF: Form G                          :      0.000u      0.000s      0.001w     10 calls
| JK: D                             :      0.000u      0.000s      0.000w     10 calls
| JK: USO2AO                        :      0.000u      0.000s      0.000w     10 calls
| JK: JK                            :      0.000u      0.000s      0.001w     10 calls
| | DFH: compute_JK()               :      0.000u      0.000s      0.000w     10 calls
| | | DFH: Grabbing AOs             :      0.000u      0.000s      0.000w     10 calls
| | | DFH: compute_J                :      0.000u      0.000s      0.000w     10 calls
| | | DFH: compute_K                :      0.000u      0.000s      0.000w     10 calls
| JK: AO2USO                        :      0.000u      0.000s      0.000w     10 calls
HF: Form F                          :      0.000u      0.000s      0.000w     10 calls
HF: Form D                          :      0.000u      0.000s      0.000w     10 calls
HF: DIIS                            :      0.000u      0.000s      0.018w      8 calls
| DIISManager::add_entry            :      0.000u      0.000s      0.012w      8 calls
| DIISManager::extrapolate          :      0.000u      0.000s      0.001w      8 calls
| | bMatrix setup                   :      0.000u      0.000s      0.000w      8 calls
| | bMatrix pseudoinverse           :      0.000u      0.000s      0.000w      8 calls
| | New vector                      :      0.000u      0.000s      0.000w      8 calls
HF: Form C                          :      0.000u      0.000s      0.000w      8 calls

**************************************************************************************

Host: kant

Timers On : Wed Oct 19 21:26:41 2022
Timers Off: Wed Oct 19 21:26:48 2022

Wall Time:        7.23 seconds

                                                       Time (seconds)
Module                                       User      System        Wall        Calls
DFH: sparsity prep                  :      0.033u      0.000s      0.019w      2 calls
DFH: initialize()                   :      0.167u      0.000s      0.098w      2 calls
DFH: AO Construction                :      0.000u      0.000s      0.000w      2 calls
DFH: AO-Met. Contraction            :      0.000u      0.000s      0.000w      2 calls
HF: Form core H                     :      0.000u      0.000s      0.313w      2 calls
HF: Form S/X                        :      0.000u      0.000s      0.000w      2 calls
HF: Guess                           :      0.267u      0.000s      0.160w      2 calls
SAD Guess                           :      0.200u      0.000s      0.119w      2 calls
HF: Form G                          :      0.000u      0.000s      0.001w     10 calls
JK: D                               :      0.000u      0.000s      0.000w     10 calls
JK: USO2AO                          :      0.000u      0.000s      0.000w     10 calls
JK: JK                              :      0.000u      0.000s      0.000w     10 calls
DFH: compute_JK()                   :      0.000u      0.000s      0.000w     10 calls
DFH: Grabbing AOs                   :      0.000u      0.000s      0.000w     10 calls
DFH: compute_J                      :      0.000u      0.000s      0.000w     10 calls
DFH: compute_K                      :      0.000u      0.000s      0.000w     10 calls
JK: AO2USO                          :      0.000u      0.000s      0.000w     10 calls
HF: Form F                          :      0.000u      0.000s      0.000w     10 calls
HF: Form D                          :      0.000u      0.000s      0.000w     10 calls
HF: DIIS                            :      0.000u      0.000s      0.010w      8 calls
DIISManager::add_entry              :      0.000u      0.000s      0.007w      8 calls
DIISManager::extrapolate            :      0.000u      0.000s      0.000w      8 calls
bMatrix setup                       :      0.000u      0.000s      0.000w      8 calls
bMatrix pseudoinverse               :      0.000u      0.000s      0.000w      8 calls
New vector                          :      0.000u      0.000s      0.000w      8 calls
HF: Form C                          :      0.000u      0.000s      0.000w      8 calls

--------------------------------------------------------------------------------------
DFH: sparsity prep                  :      0.033u      0.000s      0.019w      2 calls
DFH: initialize()                   :      0.167u      0.000s      0.098w      2 calls
| DFH: AO Construction              :      0.000u      0.000s      0.000w      2 calls
| DFH: AO-Met. Contraction          :      0.000u      0.000s      0.000w      2 calls
HF: Form core H                     :      0.000u      0.000s      0.313w      2 calls
HF: Form S/X                        :      0.000u      0.000s      0.000w      2 calls
HF: Guess                           :      0.267u      0.000s      0.160w      2 calls
| SAD Guess                         :      0.200u      0.000s      0.119w      2 calls
HF: Form G                          :      0.000u      0.000s      0.001w     10 calls
| JK: D                             :      0.000u      0.000s      0.000w     10 calls
| JK: USO2AO                        :      0.000u      0.000s      0.000w     10 calls
| JK: JK                            :      0.000u      0.000s      0.000w     10 calls
| | DFH: compute_JK()               :      0.000u      0.000s      0.000w     10 calls
| | | DFH: Grabbing AOs             :      0.000u      0.000s      0.000w     10 calls
| | | DFH: compute_J                :      0.000u      0.000s      0.000w     10 calls
| | | DFH: compute_K                :      0.000u      0.000s      0.000w     10 calls
| JK: AO2USO                        :      0.000u      0.000s      0.000w     10 calls
HF: Form F                          :      0.000u      0.000s      0.000w     10 calls
HF: Form D                          :      0.000u      0.000s      0.000w     10 calls
HF: DIIS                            :      0.000u      0.000s      0.010w      8 calls
| DIISManager::add_entry            :      0.000u      0.000s      0.007w      8 calls
| DIISManager::extrapolate          :      0.000u      0.000s      0.000w      8 calls
| | bMatrix setup                   :      0.000u      0.000s      0.000w      8 calls
| | bMatrix pseudoinverse           :      0.000u      0.000s      0.000w      8 calls
| | New vector                      :      0.000u      0.000s      0.000w      8 calls
HF: Form C                          :      0.000u      0.000s      0.000w      8 calls

**************************************************************************************

Host: kant

Timers On : Wed Oct 19 21:27:39 2022
Timers Off: Wed Oct 19 21:27:44 2022

Wall Time:        5.05 seconds

                                                       Time (seconds)
Module                                       User      System        Wall        Calls
DFH: sparsity prep                  :      0.033u      0.000s      0.019w      2 calls
DFH: initialize()                   :      0.167u      0.000s      0.102w      2 calls
DFH: AO Construction                :      0.000u      0.000s      0.000w      2 calls
DFH: AO-Met. Contraction            :      0.000u      0.000s      0.000w      2 calls
HF: Form core H                     :      0.000u      0.000s      0.047w      2 calls
HF: Form S/X                        :      0.000u      0.000s      0.000w      2 calls
HF: Guess                           :      0.267u      0.000s      0.165w      2 calls
SAD Guess                           :      0.200u      0.000s      0.120w      2 calls
HF: Form G                          :      0.000u      0.000s      0.001w     10 calls
JK: D                               :      0.000u      0.000s      0.000w     10 calls
JK: USO2AO                          :      0.000u      0.000s      0.000w     10 calls
JK: JK                              :      0.000u      0.000s      0.000w     10 calls
DFH: compute_JK()                   :      0.000u      0.000s      0.000w     10 calls
DFH: Grabbing AOs                   :      0.000u      0.000s      0.000w     10 calls
DFH: compute_J                      :      0.000u      0.000s      0.000w     10 calls
DFH: compute_K                      :      0.000u      0.000s      0.000w     10 calls
JK: AO2USO                          :      0.000u      0.000s      0.000w     10 calls
HF: Form F                          :      0.000u      0.000s      0.000w     10 calls
HF: Form D                          :      0.000u      0.000s      0.000w     10 calls
HF: DIIS                            :      0.017u      0.000s      0.011w      8 calls
DIISManager::add_entry              :      0.000u      0.000s      0.007w      8 calls
DIISManager::extrapolate            :      0.017u      0.000s      0.001w      8 calls
bMatrix setup                       :      0.017u      0.000s      0.000w      8 calls
bMatrix pseudoinverse               :      0.000u      0.000s      0.000w      8 calls
New vector                          :      0.000u      0.000s      0.000w      8 calls
HF: Form C                          :      0.000u      0.000s      0.000w      8 calls

--------------------------------------------------------------------------------------
DFH: sparsity prep                  :      0.033u      0.000s      0.019w      2 calls
DFH: initialize()                   :      0.167u      0.000s      0.102w      2 calls
| DFH: AO Construction              :      0.000u      0.000s      0.000w      2 calls
| DFH: AO-Met. Contraction          :      0.000u      0.000s      0.000w      2 calls
HF: Form core H                     :      0.000u      0.000s      0.047w      2 calls
HF: Form S/X                        :      0.000u      0.000s      0.000w      2 calls
HF: Guess                           :      0.267u      0.000s      0.165w      2 calls
| SAD Guess                         :      0.200u      0.000s      0.120w      2 calls
HF: Form G                          :      0.000u      0.000s      0.001w     10 calls
| JK: D                             :      0.000u      0.000s      0.000w     10 calls
| JK: USO2AO                        :      0.000u      0.000s      0.000w     10 calls
| JK: JK                            :      0.000u      0.000s      0.000w     10 calls
| | DFH: compute_JK()               :      0.000u      0.000s      0.000w     10 calls
| | | DFH: Grabbing AOs             :      0.000u      0.000s      0.000w     10 calls
| | | DFH: compute_J                :      0.000u      0.000s      0.000w     10 calls
| | | DFH: compute_K                :      0.000u      0.000s      0.000w     10 calls
| JK: AO2USO                        :      0.000u      0.000s      0.000w     10 calls
HF: Form F                          :      0.000u      0.000s      0.000w     10 calls
HF: Form D                          :      0.000u      0.000s      0.000w     10 calls
HF: DIIS                            :      0.017u      0.000s      0.011w      8 calls
| DIISManager::add_entry            :      0.000u      0.000s      0.007w      8 calls
| DIISManager::extrapolate          :      0.017u      0.000s      0.001w      8 calls
| | bMatrix setup                   :      0.017u      0.000s      0.000w      8 calls
| | bMatrix pseudoinverse           :      0.000u      0.000s      0.000w      8 calls
| | New vector                      :      0.000u      0.000s      0.000w      8 calls
HF: Form C                          :      0.000u      0.000s      0.000w      8 calls

**************************************************************************************

Host: kant

Timers On : Wed Oct 19 21:28:06 2022
Timers Off: Wed Oct 19 21:28:11 2022

Wall Time:        4.90 seconds

                                                       Time (seconds)
Module                                       User      System        Wall        Calls
DFH: sparsity prep                  :      0.033u      0.000s      0.019w      2 calls
DFH: initialize()                   :      0.117u      0.000s      0.074w      2 calls
DFH: AO Construction                :      0.000u      0.000s      0.000w      2 calls
DFH: AO-Met. Contraction            :      0.000u      0.000s      0.000w      2 calls
HF: Form core H                     :      0.017u      0.000s      0.049w      2 calls
HF: Form S/X                        :      0.000u      0.000s      0.000w      2 calls
HF: Guess                           :      0.217u      0.000s      0.137w      2 calls
SAD Guess                           :      0.183u      0.000s      0.112w      2 calls
HF: Form G                          :      0.000u      0.000s      0.001w     10 calls
JK: D                               :      0.000u      0.000s      0.000w     10 calls
JK: USO2AO                          :      0.000u      0.000s      0.000w     10 calls
JK: JK                              :      0.000u      0.000s      0.000w     10 calls
DFH: compute_JK()                   :      0.000u      0.000s      0.000w     10 calls
DFH: Grabbing AOs                   :      0.000u      0.000s      0.000w     10 calls
DFH: compute_J                      :      0.000u      0.000s      0.000w     10 calls
DFH: compute_K                      :      0.000u      0.000s      0.000w     10 calls
JK: AO2USO                          :      0.000u      0.000s      0.000w     10 calls
HF: Form F                          :      0.000u      0.000s      0.000w     10 calls
HF: Form D                          :      0.000u      0.000s      0.000w     10 calls
HF: DIIS                            :      0.000u      0.000s      0.017w      8 calls
DIISManager::add_entry              :      0.000u      0.000s      0.012w      8 calls
DIISManager::extrapolate            :      0.000u      0.000s      0.001w      8 calls
bMatrix setup                       :      0.000u      0.000s      0.000w      8 calls
bMatrix pseudoinverse               :      0.000u      0.000s      0.000w      8 calls
New vector                          :      0.000u      0.000s      0.000w      8 calls
HF: Form C                          :      0.000u      0.000s      0.000w      8 calls

--------------------------------------------------------------------------------------
DFH: sparsity prep                  :      0.033u      0.000s      0.019w      2 calls
DFH: initialize()                   :      0.117u      0.000s      0.074w      2 calls
| DFH: AO Construction              :      0.000u      0.000s      0.000w      2 calls
| DFH: AO-Met. Contraction          :      0.000u      0.000s      0.000w      2 calls
HF: Form core H                     :      0.017u      0.000s      0.049w      2 calls
HF: Form S/X                        :      0.000u      0.000s      0.000w      2 calls
HF: Guess                           :      0.217u      0.000s      0.137w      2 calls
| SAD Guess                         :      0.183u      0.000s      0.112w      2 calls
HF: Form G                          :      0.000u      0.000s      0.001w     10 calls
| JK: D                             :      0.000u      0.000s      0.000w     10 calls
| JK: USO2AO                        :      0.000u      0.000s      0.000w     10 calls
| JK: JK                            :      0.000u      0.000s      0.000w     10 calls
| | DFH: compute_JK()               :      0.000u      0.000s      0.000w     10 calls
| | | DFH: Grabbing AOs             :      0.000u      0.000s      0.000w     10 calls
| | | DFH: compute_J                :      0.000u      0.000s      0.000w     10 calls
| | | DFH: compute_K                :      0.000u      0.000s      0.000w     10 calls
| JK: AO2USO                        :      0.000u      0.000s      0.000w     10 calls
HF: Form F                          :      0.000u      0.000s      0.000w     10 calls
HF: Form D                          :      0.000u      0.000s      0.000w     10 calls
HF: DIIS                            :      0.000u      0.000s      0.017w      8 calls
| DIISManager::add_entry            :      0.000u      0.000s      0.012w      8 calls
| DIISManager::extrapolate          :      0.000u      0.000s      0.001w      8 calls
| | bMatrix setup                   :      0.000u      0.000s      0.000w      8 calls
| | bMatrix pseudoinverse           :      0.000u      0.000s      0.000w      8 calls
| | New vector                      :      0.000u      0.000s      0.000w      8 calls
HF: Form C                          :      0.000u      0.000s      0.000w      8 calls

**************************************************************************************

Host: kant

Timers On : Wed Oct 19 21:29:56 2022
Timers Off: Wed Oct 19 21:30:01 2022

Wall Time:        5.34 seconds

                                                       Time (seconds)
Module                                       User      System        Wall        Calls
DFH: sparsity prep                  :      0.033u      0.000s      0.019w      2 calls
DFH: initialize()                   :      0.133u      0.000s      0.074w      2 calls
DFH: AO Construction                :      0.000u      0.000s      0.000w      2 calls
DFH: AO-Met. Contraction            :      0.000u      0.000s      0.000w      2 calls
HF: Form core H                     :      0.000u      0.017s      0.048w      2 calls
HF: Form S/X                        :      0.000u      0.000s      0.000w      2 calls
HF: Guess                           :      0.267u      0.000s      0.159w      2 calls
SAD Guess                           :      0.200u      0.000s      0.122w      2 calls
HF: Form G                          :      0.000u      0.000s      0.001w     10 calls
JK: D                               :      0.000u      0.000s      0.000w     10 calls
JK: USO2AO                          :      0.000u      0.000s      0.000w     10 calls
JK: JK                              :      0.000u      0.000s      0.001w     10 calls
DFH: compute_JK()                   :      0.000u      0.000s      0.000w     10 calls
DFH: Grabbing AOs                   :      0.000u      0.000s      0.000w     10 calls
DFH: compute_J                      :      0.000u      0.000s      0.000w     10 calls
DFH: compute_K                      :      0.000u      0.000s      0.000w     10 calls
JK: AO2USO                          :      0.000u      0.000s      0.000w     10 calls
HF: Form F                          :      0.000u      0.000s      0.000w     10 calls
HF: Form D                          :      0.000u      0.000s      0.000w     10 calls
HF: DIIS                            :      0.017u      0.000s      0.019w      8 calls
DIISManager::add_entry              :      0.000u      0.000s      0.013w      8 calls
DIISManager::extrapolate            :      0.000u      0.000s      0.001w      8 calls
bMatrix setup                       :      0.000u      0.000s      0.000w      8 calls
bMatrix pseudoinverse               :      0.000u      0.000s      0.000w      8 calls
New vector                          :      0.000u      0.000s      0.000w      8 calls
HF: Form C                          :      0.000u      0.000s      0.000w      8 calls

--------------------------------------------------------------------------------------
DFH: sparsity prep                  :      0.033u      0.000s      0.019w      2 calls
DFH: initialize()                   :      0.133u      0.000s      0.074w      2 calls
| DFH: AO Construction              :      0.000u      0.000s      0.000w      2 calls
| DFH: AO-Met. Contraction          :      0.000u      0.000s      0.000w      2 calls
HF: Form core H                     :      0.000u      0.017s      0.048w      2 calls
HF: Form S/X                        :      0.000u      0.000s      0.000w      2 calls
HF: Guess                           :      0.267u      0.000s      0.159w      2 calls
| SAD Guess                         :      0.200u      0.000s      0.122w      2 calls
HF: Form G                          :      0.000u      0.000s      0.001w     10 calls
| JK: D                             :      0.000u      0.000s      0.000w     10 calls
| JK: USO2AO                        :      0.000u      0.000s      0.000w     10 calls
| JK: JK                            :      0.000u      0.000s      0.001w     10 calls
| | DFH: compute_JK()               :      0.000u      0.000s      0.000w     10 calls
| | | DFH: Grabbing AOs             :      0.000u      0.000s      0.000w     10 calls
| | | DFH: compute_J                :      0.000u      0.000s      0.000w     10 calls
| | | DFH: compute_K                :      0.000u      0.000s      0.000w     10 calls
| JK: AO2USO                        :      0.000u      0.000s      0.000w     10 calls
HF: Form F                          :      0.000u      0.000s      0.000w     10 calls
HF: Form D                          :      0.000u      0.000s      0.000w     10 calls
HF: DIIS                            :      0.017u      0.000s      0.019w      8 calls
| DIISManager::add_entry            :      0.000u      0.000s      0.013w      8 calls
| DIISManager::extrapolate          :      0.000u      0.000s      0.001w      8 calls
| | bMatrix setup                   :      0.000u      0.000s      0.000w      8 calls
| | bMatrix pseudoinverse           :      0.000u      0.000s      0.000w      8 calls
| | New vector                      :      0.000u      0.000s      0.000w      8 calls
HF: Form C                          :      0.000u      0.000s      0.000w      8 calls

**************************************************************************************

Host: kant

Timers On : Wed Oct 19 21:32:29 2022
Timers Off: Wed Oct 19 21:32:35 2022

Wall Time:        6.18 seconds

                                                       Time (seconds)
Module                                       User      System        Wall        Calls
DFH: sparsity prep                  :      0.033u      0.000s      0.019w      2 calls
DFH: initialize()                   :      0.117u      0.000s      0.072w      2 calls
DFH: AO Construction                :      0.000u      0.000s      0.000w      2 calls
DFH: AO-Met. Contraction            :      0.000u      0.000s      0.000w      2 calls
HF: Form core H                     :      0.000u      0.000s      0.047w      2 calls
HF: Form S/X                        :      0.000u      0.000s      0.000w      2 calls
HF: Guess                           :      0.250u      0.000s      0.148w      2 calls
SAD Guess                           :      0.200u      0.000s      0.116w      2 calls
HF: Form G                          :      0.000u      0.000s      0.001w     10 calls
JK: D                               :      0.000u      0.000s      0.000w     10 calls
JK: USO2AO                          :      0.000u      0.000s      0.000w     10 calls
JK: JK                              :      0.000u      0.000s      0.000w     10 calls
DFH: compute_JK()                   :      0.000u      0.000s      0.000w     10 calls
DFH: Grabbing AOs                   :      0.000u      0.000s      0.000w     10 calls
DFH: compute_J                      :      0.000u      0.000s      0.000w     10 calls
DFH: compute_K                      :      0.000u      0.000s      0.000w     10 calls
JK: AO2USO                          :      0.000u      0.000s      0.000w     10 calls
HF: Form F                          :      0.000u      0.000s      0.000w     10 calls
HF: Form D                          :      0.000u      0.000s      0.000w     10 calls
HF: DIIS                            :      0.000u      0.017s      0.018w      8 calls
DIISManager::add_entry              :      0.000u      0.017s      0.013w      8 calls
DIISManager::extrapolate            :      0.000u      0.000s      0.001w      8 calls
bMatrix setup                       :      0.000u      0.000s      0.000w      8 calls
bMatrix pseudoinverse               :      0.000u      0.000s      0.000w      8 calls
New vector                          :      0.000u      0.000s      0.000w      8 calls
HF: Form C                          :      0.000u      0.000s      0.000w      8 calls

--------------------------------------------------------------------------------------
DFH: sparsity prep                  :      0.033u      0.000s      0.019w      2 calls
DFH: initialize()                   :      0.117u      0.000s      0.072w      2 calls
| DFH: AO Construction              :      0.000u      0.000s      0.000w      2 calls
| DFH: AO-Met. Contraction          :      0.000u      0.000s      0.000w      2 calls
HF: Form core H                     :      0.000u      0.000s      0.047w      2 calls
HF: Form S/X                        :      0.000u      0.000s      0.000w      2 calls
HF: Guess                           :      0.250u      0.000s      0.148w      2 calls
| SAD Guess                         :      0.200u      0.000s      0.116w      2 calls
HF: Form G                          :      0.000u      0.000s      0.001w     10 calls
| JK: D                             :      0.000u      0.000s      0.000w     10 calls
| JK: USO2AO                        :      0.000u      0.000s      0.000w     10 calls
| JK: JK                            :      0.000u      0.000s      0.000w     10 calls
| | DFH: compute_JK()               :      0.000u      0.000s      0.000w     10 calls
| | | DFH: Grabbing AOs             :      0.000u      0.000s      0.000w     10 calls
| | | DFH: compute_J                :      0.000u      0.000s      0.000w     10 calls
| | | DFH: compute_K                :      0.000u      0.000s      0.000w     10 calls
| JK: AO2USO                        :      0.000u      0.000s      0.000w     10 calls
HF: Form F                          :      0.000u      0.000s      0.000w     10 calls
HF: Form D                          :      0.000u      0.000s      0.000w     10 calls
HF: DIIS                            :      0.000u      0.017s      0.018w      8 calls
| DIISManager::add_entry            :      0.000u      0.017s      0.013w      8 calls
| DIISManager::extrapolate          :      0.000u      0.000s      0.001w      8 calls
| | bMatrix setup                   :      0.000u      0.000s      0.000w      8 calls
| | bMatrix pseudoinverse           :      0.000u      0.000s      0.000w      8 calls
| | New vector                      :      0.000u      0.000s      0.000w      8 calls
HF: Form C                          :      0.000u      0.000s      0.000w      8 calls

**************************************************************************************

Host: kant

Timers On : Wed Oct 19 21:33:19 2022
Timers Off: Wed Oct 19 21:33:19 2022

Wall Time:        0.38 seconds

                                                       Time (seconds)
Module                                       User      System        Wall        Calls

--------------------------------------------------------------------------------------

**************************************************************************************

Host: kant

Timers On : Wed Oct 19 21:34:46 2022
Timers Off: Wed Oct 19 21:34:51 2022

Wall Time:        5.75 seconds

                                                       Time (seconds)
Module                                       User      System        Wall        Calls
DFH: sparsity prep                  :      0.033u      0.000s      0.019w      2 calls
DFH: initialize()                   :      0.133u      0.000s      0.080w      2 calls
DFH: AO Construction                :      0.000u      0.000s      0.000w      2 calls
DFH: AO-Met. Contraction            :      0.000u      0.000s      0.000w      2 calls
HF: Form core H                     :      0.000u      0.000s      0.044w      2 calls
HF: Form S/X                        :      0.000u      0.000s      0.000w      2 calls
HF: Guess                           :      0.267u      0.000s      0.165w      2 calls
SAD Guess                           :      0.200u      0.000s      0.119w      2 calls
HF: Form G                          :      0.000u      0.000s      0.001w     10 calls
JK: D                               :      0.000u      0.000s      0.000w     10 calls
JK: USO2AO                          :      0.000u      0.000s      0.000w     10 calls
JK: JK                              :      0.000u      0.000s      0.000w     10 calls
DFH: compute_JK()                   :      0.000u      0.000s      0.000w     10 calls
DFH: Grabbing AOs                   :      0.000u      0.000s      0.000w     10 calls
DFH: compute_J                      :      0.000u      0.000s      0.000w     10 calls
DFH: compute_K                      :      0.000u      0.000s      0.000w     10 calls
JK: AO2USO                          :      0.000u      0.000s      0.000w     10 calls
HF: Form F                          :      0.000u      0.000s      0.000w     10 calls
HF: Form D                          :      0.000u      0.000s      0.000w     10 calls
HF: DIIS                            :      0.000u      0.000s      0.011w      8 calls
DIISManager::add_entry              :      0.000u      0.000s      0.007w      8 calls
DIISManager::extrapolate            :      0.000u      0.000s      0.000w      8 calls
bMatrix setup                       :      0.000u      0.000s      0.000w      8 calls
bMatrix pseudoinverse               :      0.000u      0.000s      0.000w      8 calls
New vector                          :      0.000u      0.000s      0.000w      8 calls
HF: Form C                          :      0.000u      0.000s      0.000w      8 calls

--------------------------------------------------------------------------------------
DFH: sparsity prep                  :      0.033u      0.000s      0.019w      2 calls
DFH: initialize()                   :      0.133u      0.000s      0.080w      2 calls
| DFH: AO Construction              :      0.000u      0.000s      0.000w      2 calls
| DFH: AO-Met. Contraction          :      0.000u      0.000s      0.000w      2 calls
HF: Form core H                     :      0.000u      0.000s      0.044w      2 calls
HF: Form S/X                        :      0.000u      0.000s      0.000w      2 calls
HF: Guess                           :      0.267u      0.000s      0.165w      2 calls
| SAD Guess                         :      0.200u      0.000s      0.119w      2 calls
HF: Form G                          :      0.000u      0.000s      0.001w     10 calls
| JK: D                             :      0.000u      0.000s      0.000w     10 calls
| JK: USO2AO                        :      0.000u      0.000s      0.000w     10 calls
| JK: JK                            :      0.000u      0.000s      0.000w     10 calls
| | DFH: compute_JK()               :      0.000u      0.000s      0.000w     10 calls
| | | DFH: Grabbing AOs             :      0.000u      0.000s      0.000w     10 calls
| | | DFH: compute_J                :      0.000u      0.000s      0.000w     10 calls
| | | DFH: compute_K                :      0.000u      0.000s      0.000w     10 calls
| JK: AO2USO                        :      0.000u      0.000s      0.000w     10 calls
HF: Form F                          :      0.000u      0.000s      0.000w     10 calls
HF: Form D                          :      0.000u      0.000s      0.000w     10 calls
HF: DIIS                            :      0.000u      0.000s      0.011w      8 calls
| DIISManager::add_entry            :      0.000u      0.000s      0.007w      8 calls
| DIISManager::extrapolate          :      0.000u      0.000s      0.000w      8 calls
| | bMatrix setup                   :      0.000u      0.000s      0.000w      8 calls
| | bMatrix pseudoinverse           :      0.000u      0.000s      0.000w      8 calls
| | New vector                      :      0.000u      0.000s      0.000w      8 calls
HF: Form C                          :      0.000u      0.000s      0.000w      8 calls

**************************************************************************************

Host: kant

Timers On : Wed Oct 19 21:36:41 2022
Timers Off: Wed Oct 19 21:36:45 2022

Wall Time:        4.84 seconds

                                                       Time (seconds)
Module                                       User      System        Wall        Calls
DFH: sparsity prep                  :      0.033u      0.000s      0.019w      2 calls
DFH: initialize()                   :      0.133u      0.000s      0.081w      2 calls
DFH: AO Construction                :      0.000u      0.000s      0.000w      2 calls
DFH: AO-Met. Contraction            :      0.000u      0.000s      0.000w      2 calls
HF: Form core H                     :      0.000u      0.000s      0.053w      2 calls
HF: Form S/X                        :      0.000u      0.000s      0.000w      2 calls
HF: Guess                           :      0.267u      0.000s      0.161w      2 calls
SAD Guess                           :      0.183u      0.000s      0.119w      2 calls
HF: Form G                          :      0.000u      0.000s      0.001w     10 calls
JK: D                               :      0.000u      0.000s      0.000w     10 calls
JK: USO2AO                          :      0.000u      0.000s      0.000w     10 calls
JK: JK                              :      0.000u      0.000s      0.000w     10 calls
DFH: compute_JK()                   :      0.000u      0.000s      0.000w     10 calls
DFH: Grabbing AOs                   :      0.000u      0.000s      0.000w     10 calls
DFH: compute_J                      :      0.000u      0.000s      0.000w     10 calls
DFH: compute_K                      :      0.000u      0.000s      0.000w     10 calls
JK: AO2USO                          :      0.000u      0.000s      0.000w     10 calls
HF: Form F                          :      0.000u      0.000s      0.000w     10 calls
HF: Form D                          :      0.000u      0.000s      0.000w     10 calls
HF: DIIS                            :      0.000u      0.000s      0.014w      8 calls
DIISManager::add_entry              :      0.000u      0.000s      0.011w      8 calls
DIISManager::extrapolate            :      0.000u      0.000s      0.000w      8 calls
bMatrix setup                       :      0.000u      0.000s      0.000w      8 calls
bMatrix pseudoinverse               :      0.000u      0.000s      0.000w      8 calls
New vector                          :      0.000u      0.000s      0.000w      8 calls
HF: Form C                          :      0.000u      0.000s      0.000w      8 calls

--------------------------------------------------------------------------------------
DFH: sparsity prep                  :      0.033u      0.000s      0.019w      2 calls
DFH: initialize()                   :      0.133u      0.000s      0.081w      2 calls
| DFH: AO Construction              :      0.000u      0.000s      0.000w      2 calls
| DFH: AO-Met. Contraction          :      0.000u      0.000s      0.000w      2 calls
HF: Form core H                     :      0.000u      0.000s      0.053w      2 calls
HF: Form S/X                        :      0.000u      0.000s      0.000w      2 calls
HF: Guess                           :      0.267u      0.000s      0.161w      2 calls
| SAD Guess                         :      0.183u      0.000s      0.119w      2 calls
HF: Form G                          :      0.000u      0.000s      0.001w     10 calls
| JK: D                             :      0.000u      0.000s      0.000w     10 calls
| JK: USO2AO                        :      0.000u      0.000s      0.000w     10 calls
| JK: JK                            :      0.000u      0.000s      0.000w     10 calls
| | DFH: compute_JK()               :      0.000u      0.000s      0.000w     10 calls
| | | DFH: Grabbing AOs             :      0.000u      0.000s      0.000w     10 calls
| | | DFH: compute_J                :      0.000u      0.000s      0.000w     10 calls
| | | DFH: compute_K                :      0.000u      0.000s      0.000w     10 calls
| JK: AO2USO                        :      0.000u      0.000s      0.000w     10 calls
HF: Form F                          :      0.000u      0.000s      0.000w     10 calls
HF: Form D                          :      0.000u      0.000s      0.000w     10 calls
HF: DIIS                            :      0.000u      0.000s      0.014w      8 calls
| DIISManager::add_entry            :      0.000u      0.000s      0.011w      8 calls
| DIISManager::extrapolate          :      0.000u      0.000s      0.000w      8 calls
| | bMatrix setup                   :      0.000u      0.000s      0.000w      8 calls
| | bMatrix pseudoinverse           :      0.000u      0.000s      0.000w      8 calls
| | New vector                      :      0.000u      0.000s      0.000w      8 calls
HF: Form C                          :      0.000u      0.000s      0.000w      8 calls

**************************************************************************************

Host: kant

Timers On : Wed Oct 19 21:45:08 2022
Timers Off: Wed Oct 19 21:45:14 2022

Wall Time:        5.44 seconds

                                                       Time (seconds)
Module                                       User      System        Wall        Calls
DFH: sparsity prep                  :      0.033u      0.000s      0.019w      2 calls
DFH: initialize()                   :      0.133u      0.000s      0.083w      2 calls
DFH: AO Construction                :      0.000u      0.000s      0.000w      2 calls
DFH: AO-Met. Contraction            :      0.000u      0.000s      0.000w      2 calls
HF: Form core H                     :      0.017u      0.000s      0.040w      2 calls
HF: Form S/X                        :      0.000u      0.000s      0.000w      2 calls
HF: Guess                           :      0.267u      0.000s      0.158w      2 calls
SAD Guess                           :      0.217u      0.000s      0.122w      2 calls
HF: Form G                          :      0.000u      0.000s      0.001w     10 calls
JK: D                               :      0.000u      0.000s      0.000w     10 calls
JK: USO2AO                          :      0.000u      0.000s      0.000w     10 calls
JK: JK                              :      0.000u      0.000s      0.000w     10 calls
DFH: compute_JK()                   :      0.000u      0.000s      0.000w     10 calls
DFH: Grabbing AOs                   :      0.000u      0.000s      0.000w     10 calls
DFH: compute_J                      :      0.000u      0.000s      0.000w     10 calls
DFH: compute_K                      :      0.000u      0.000s      0.000w     10 calls
JK: AO2USO                          :      0.000u      0.000s      0.000w     10 calls
HF: Form F                          :      0.000u      0.000s      0.000w     10 calls
HF: Form D                          :      0.000u      0.000s      0.000w     10 calls
HF: DIIS                            :      0.000u      0.000s      0.012w      8 calls
DIISManager::add_entry              :      0.000u      0.000s      0.008w      8 calls
DIISManager::extrapolate            :      0.000u      0.000s      0.000w      8 calls
bMatrix setup                       :      0.000u      0.000s      0.000w      8 calls
bMatrix pseudoinverse               :      0.000u      0.000s      0.000w      8 calls
New vector                          :      0.000u      0.000s      0.000w      8 calls
HF: Form C                          :      0.000u      0.000s      0.000w      8 calls

--------------------------------------------------------------------------------------
DFH: sparsity prep                  :      0.033u      0.000s      0.019w      2 calls
DFH: initialize()                   :      0.133u      0.000s      0.083w      2 calls
| DFH: AO Construction              :      0.000u      0.000s      0.000w      2 calls
| DFH: AO-Met. Contraction          :      0.000u      0.000s      0.000w      2 calls
HF: Form core H                     :      0.017u      0.000s      0.040w      2 calls
HF: Form S/X                        :      0.000u      0.000s      0.000w      2 calls
HF: Guess                           :      0.267u      0.000s      0.158w      2 calls
| SAD Guess                         :      0.217u      0.000s      0.122w      2 calls
HF: Form G                          :      0.000u      0.000s      0.001w     10 calls
| JK: D                             :      0.000u      0.000s      0.000w     10 calls
| JK: USO2AO                        :      0.000u      0.000s      0.000w     10 calls
| JK: JK                            :      0.000u      0.000s      0.000w     10 calls
| | DFH: compute_JK()               :      0.000u      0.000s      0.000w     10 calls
| | | DFH: Grabbing AOs             :      0.000u      0.000s      0.000w     10 calls
| | | DFH: compute_J                :      0.000u      0.000s      0.000w     10 calls
| | | DFH: compute_K                :      0.000u      0.000s      0.000w     10 calls
| JK: AO2USO                        :      0.000u      0.000s      0.000w     10 calls
HF: Form F                          :      0.000u      0.000s      0.000w     10 calls
HF: Form D                          :      0.000u      0.000s      0.000w     10 calls
HF: DIIS                            :      0.000u      0.000s      0.012w      8 calls
| DIISManager::add_entry            :      0.000u      0.000s      0.008w      8 calls
| DIISManager::extrapolate          :      0.000u      0.000s      0.000w      8 calls
| | bMatrix setup                   :      0.000u      0.000s      0.000w      8 calls
| | bMatrix pseudoinverse           :      0.000u      0.000s      0.000w      8 calls
| | New vector                      :      0.000u      0.000s      0.000w      8 calls
HF: Form C                          :      0.000u      0.000s      0.000w      8 calls

**************************************************************************************

Host: kant

Timers On : Wed Oct 19 21:46:16 2022
Timers Off: Wed Oct 19 21:46:21 2022

Wall Time:        4.78 seconds

                                                       Time (seconds)
Module                                       User      System        Wall        Calls
DFH: sparsity prep                  :      0.033u      0.000s      0.019w      2 calls
DFH: initialize()                   :      0.167u      0.000s      0.095w      2 calls
DFH: AO Construction                :      0.000u      0.000s      0.000w      2 calls
DFH: AO-Met. Contraction            :      0.000u      0.000s      0.000w      2 calls
HF: Form core H                     :      0.000u      0.000s      0.042w      2 calls
HF: Form S/X                        :      0.000u      0.000s      0.000w      2 calls
HF: Guess                           :      0.233u      0.000s      0.145w      2 calls
SAD Guess                           :      0.183u      0.000s      0.115w      2 calls
HF: Form G                          :      0.000u      0.000s      0.001w     10 calls
JK: D                               :      0.000u      0.000s      0.000w     10 calls
JK: USO2AO                          :      0.000u      0.000s      0.000w     10 calls
JK: JK                              :      0.000u      0.000s      0.000w     10 calls
DFH: compute_JK()                   :      0.000u      0.000s      0.000w     10 calls
DFH: Grabbing AOs                   :      0.000u      0.000s      0.000w     10 calls
DFH: compute_J                      :      0.000u      0.000s      0.000w     10 calls
DFH: compute_K                      :      0.000u      0.000s      0.000w     10 calls
JK: AO2USO                          :      0.000u      0.000s      0.000w     10 calls
HF: Form F                          :      0.000u      0.000s      0.000w     10 calls
HF: Form D                          :      0.000u      0.000s      0.000w     10 calls
HF: DIIS                            :      0.000u      0.017s      0.010w      8 calls
DIISManager::add_entry              :      0.000u      0.017s      0.008w      8 calls
DIISManager::extrapolate            :      0.000u      0.000s      0.000w      8 calls
bMatrix setup                       :      0.000u      0.000s      0.000w      8 calls
bMatrix pseudoinverse               :      0.000u      0.000s      0.000w      8 calls
New vector                          :      0.000u      0.000s      0.000w      8 calls
HF: Form C                          :      0.000u      0.000s      0.000w      8 calls

--------------------------------------------------------------------------------------
DFH: sparsity prep                  :      0.033u      0.000s      0.019w      2 calls
DFH: initialize()                   :      0.167u      0.000s      0.095w      2 calls
| DFH: AO Construction              :      0.000u      0.000s      0.000w      2 calls
| DFH: AO-Met. Contraction          :      0.000u      0.000s      0.000w      2 calls
HF: Form core H                     :      0.000u      0.000s      0.042w      2 calls
HF: Form S/X                        :      0.000u      0.000s      0.000w      2 calls
HF: Guess                           :      0.233u      0.000s      0.145w      2 calls
| SAD Guess                         :      0.183u      0.000s      0.115w      2 calls
HF: Form G                          :      0.000u      0.000s      0.001w     10 calls
| JK: D                             :      0.000u      0.000s      0.000w     10 calls
| JK: USO2AO                        :      0.000u      0.000s      0.000w     10 calls
| JK: JK                            :      0.000u      0.000s      0.000w     10 calls
| | DFH: compute_JK()               :      0.000u      0.000s      0.000w     10 calls
| | | DFH: Grabbing AOs             :      0.000u      0.000s      0.000w     10 calls
| | | DFH: compute_J                :      0.000u      0.000s      0.000w     10 calls
| | | DFH: compute_K                :      0.000u      0.000s      0.000w     10 calls
| JK: AO2USO                        :      0.000u      0.000s      0.000w     10 calls
HF: Form F                          :      0.000u      0.000s      0.000w     10 calls
HF: Form D                          :      0.000u      0.000s      0.000w     10 calls
HF: DIIS                            :      0.000u      0.017s      0.010w      8 calls
| DIISManager::add_entry            :      0.000u      0.017s      0.008w      8 calls
| DIISManager::extrapolate          :      0.000u      0.000s      0.000w      8 calls
| | bMatrix setup                   :      0.000u      0.000s      0.000w      8 calls
| | bMatrix pseudoinverse           :      0.000u      0.000s      0.000w      8 calls
| | New vector                      :      0.000u      0.000s      0.000w      8 calls
HF: Form C                          :      0.000u      0.000s      0.000w      8 calls

**************************************************************************************

Host: kant

Timers On : Wed Oct 19 21:47:25 2022
Timers Off: Wed Oct 19 21:47:30 2022

Wall Time:        5.31 seconds

                                                       Time (seconds)
Module                                       User      System        Wall        Calls
DFH: sparsity prep                  :      0.033u      0.000s      0.019w      2 calls
DFH: initialize()                   :      0.150u      0.000s      0.085w      2 calls
DFH: AO Construction                :      0.000u      0.000s      0.000w      2 calls
DFH: AO-Met. Contraction            :      0.000u      0.000s      0.000w      2 calls
HF: Form core H                     :      0.000u      0.000s      0.047w      2 calls
HF: Form S/X                        :      0.000u      0.000s      0.000w      2 calls
HF: Guess                           :      0.250u      0.000s      0.154w      2 calls
SAD Guess                           :      0.200u      0.000s      0.116w      2 calls
HF: Form G                          :      0.000u      0.000s      0.001w     10 calls
JK: D                               :      0.000u      0.000s      0.000w     10 calls
JK: USO2AO                          :      0.000u      0.000s      0.000w     10 calls
JK: JK                              :      0.000u      0.000s      0.000w     10 calls
DFH: compute_JK()                   :      0.000u      0.000s      0.000w     10 calls
DFH: Grabbing AOs                   :      0.000u      0.000s      0.000w     10 calls
DFH: compute_J                      :      0.000u      0.000s      0.000w     10 calls
DFH: compute_K                      :      0.000u      0.000s      0.000w     10 calls
JK: AO2USO                          :      0.000u      0.000s      0.000w     10 calls
HF: Form F                          :      0.000u      0.000s      0.000w     10 calls
HF: Form D                          :      0.000u      0.000s      0.000w     10 calls
HF: DIIS                            :      0.000u      0.000s      0.011w      8 calls
DIISManager::add_entry              :      0.000u      0.000s      0.007w      8 calls
DIISManager::extrapolate            :      0.000u      0.000s      0.000w      8 calls
bMatrix setup                       :      0.000u      0.000s      0.000w      8 calls
bMatrix pseudoinverse               :      0.000u      0.000s      0.000w      8 calls
New vector                          :      0.000u      0.000s      0.000w      8 calls
HF: Form C                          :      0.000u      0.000s      0.000w      8 calls

--------------------------------------------------------------------------------------
DFH: sparsity prep                  :      0.033u      0.000s      0.019w      2 calls
DFH: initialize()                   :      0.150u      0.000s      0.085w      2 calls
| DFH: AO Construction              :      0.000u      0.000s      0.000w      2 calls
| DFH: AO-Met. Contraction          :      0.000u      0.000s      0.000w      2 calls
HF: Form core H                     :      0.000u      0.000s      0.047w      2 calls
HF: Form S/X                        :      0.000u      0.000s      0.000w      2 calls
HF: Guess                           :      0.250u      0.000s      0.154w      2 calls
| SAD Guess                         :      0.200u      0.000s      0.116w      2 calls
HF: Form G                          :      0.000u      0.000s      0.001w     10 calls
| JK: D                             :      0.000u      0.000s      0.000w     10 calls
| JK: USO2AO                        :      0.000u      0.000s      0.000w     10 calls
| JK: JK                            :      0.000u      0.000s      0.000w     10 calls
| | DFH: compute_JK()               :      0.000u      0.000s      0.000w     10 calls
| | | DFH: Grabbing AOs             :      0.000u      0.000s      0.000w     10 calls
| | | DFH: compute_J                :      0.000u      0.000s      0.000w     10 calls
| | | DFH: compute_K                :      0.000u      0.000s      0.000w     10 calls
| JK: AO2USO                        :      0.000u      0.000s      0.000w     10 calls
HF: Form F                          :      0.000u      0.000s      0.000w     10 calls
HF: Form D                          :      0.000u      0.000s      0.000w     10 calls
HF: DIIS                            :      0.000u      0.000s      0.011w      8 calls
| DIISManager::add_entry            :      0.000u      0.000s      0.007w      8 calls
| DIISManager::extrapolate          :      0.000u      0.000s      0.000w      8 calls
| | bMatrix setup                   :      0.000u      0.000s      0.000w      8 calls
| | bMatrix pseudoinverse           :      0.000u      0.000s      0.000w      8 calls
| | New vector                      :      0.000u      0.000s      0.000w      8 calls
HF: Form C                          :      0.000u      0.000s      0.000w      8 calls

**************************************************************************************

Host: kant

Timers On : Wed Oct 19 21:48:52 2022
Timers Off: Wed Oct 19 21:48:59 2022

Wall Time:        6.79 seconds

                                                       Time (seconds)
Module                                       User      System        Wall        Calls
DFH: sparsity prep                  :      0.033u      0.000s      0.019w      2 calls
DFH: initialize()                   :      0.167u      0.000s      0.096w      2 calls
DFH: AO Construction                :      0.000u      0.000s      0.000w      2 calls
DFH: AO-Met. Contraction            :      0.000u      0.000s      0.000w      2 calls
HF: Form core H                     :      0.000u      0.000s      0.313w      2 calls
HF: Form S/X                        :      0.000u      0.000s      0.000w      2 calls
HF: Guess                           :      0.250u      0.000s      0.155w      2 calls
SAD Guess                           :      0.200u      0.000s      0.117w      2 calls
HF: Form G                          :      0.000u      0.000s      0.001w     10 calls
JK: D                               :      0.000u      0.000s      0.000w     10 calls
JK: USO2AO                          :      0.000u      0.000s      0.000w     10 calls
JK: JK                              :      0.000u      0.000s      0.000w     10 calls
DFH: compute_JK()                   :      0.000u      0.000s      0.000w     10 calls
DFH: Grabbing AOs                   :      0.000u      0.000s      0.000w     10 calls
DFH: compute_J                      :      0.000u      0.000s      0.000w     10 calls
DFH: compute_K                      :      0.000u      0.000s      0.000w     10 calls
JK: AO2USO                          :      0.000u      0.000s      0.000w     10 calls
HF: Form F                          :      0.000u      0.000s      0.000w     10 calls
HF: Form D                          :      0.000u      0.000s      0.000w     10 calls
HF: DIIS                            :      0.017u      0.000s      0.010w      8 calls
DIISManager::add_entry              :      0.000u      0.000s      0.008w      8 calls
DIISManager::extrapolate            :      0.000u      0.000s      0.000w      8 calls
bMatrix setup                       :      0.000u      0.000s      0.000w      8 calls
bMatrix pseudoinverse               :      0.000u      0.000s      0.000w      8 calls
New vector                          :      0.000u      0.000s      0.000w      8 calls
HF: Form C                          :      0.000u      0.000s      0.000w      8 calls

--------------------------------------------------------------------------------------
DFH: sparsity prep                  :      0.033u      0.000s      0.019w      2 calls
DFH: initialize()                   :      0.167u      0.000s      0.096w      2 calls
| DFH: AO Construction              :      0.000u      0.000s      0.000w      2 calls
| DFH: AO-Met. Contraction          :      0.000u      0.000s      0.000w      2 calls
HF: Form core H                     :      0.000u      0.000s      0.313w      2 calls
HF: Form S/X                        :      0.000u      0.000s      0.000w      2 calls
HF: Guess                           :      0.250u      0.000s      0.155w      2 calls
| SAD Guess                         :      0.200u      0.000s      0.117w      2 calls
HF: Form G                          :      0.000u      0.000s      0.001w     10 calls
| JK: D                             :      0.000u      0.000s      0.000w     10 calls
| JK: USO2AO                        :      0.000u      0.000s      0.000w     10 calls
| JK: JK                            :      0.000u      0.000s      0.000w     10 calls
| | DFH: compute_JK()               :      0.000u      0.000s      0.000w     10 calls
| | | DFH: Grabbing AOs             :      0.000u      0.000s      0.000w     10 calls
| | | DFH: compute_J                :      0.000u      0.000s      0.000w     10 calls
| | | DFH: compute_K                :      0.000u      0.000s      0.000w     10 calls
| JK: AO2USO                        :      0.000u      0.000s      0.000w     10 calls
HF: Form F                          :      0.000u      0.000s      0.000w     10 calls
HF: Form D                          :      0.000u      0.000s      0.000w     10 calls
HF: DIIS                            :      0.017u      0.000s      0.010w      8 calls
| DIISManager::add_entry            :      0.000u      0.000s      0.008w      8 calls
| DIISManager::extrapolate          :      0.000u      0.000s      0.000w      8 calls
| | bMatrix setup                   :      0.000u      0.000s      0.000w      8 calls
| | bMatrix pseudoinverse           :      0.000u      0.000s      0.000w      8 calls
| | New vector                      :      0.000u      0.000s      0.000w      8 calls
HF: Form C                          :      0.000u      0.000s      0.000w      8 calls

**************************************************************************************

Host: kant

Timers On : Wed Oct 19 22:40:19 2022
Timers Off: Wed Oct 19 22:40:24 2022

Wall Time:        5.07 seconds

                                                       Time (seconds)
Module                                       User      System        Wall        Calls
DFH: sparsity prep                  :      0.033u      0.000s      0.019w      2 calls
DFH: initialize()                   :      0.133u      0.000s      0.086w      2 calls
DFH: AO Construction                :      0.000u      0.000s      0.000w      2 calls
DFH: AO-Met. Contraction            :      0.000u      0.000s      0.000w      2 calls
HF: Form core H                     :      0.017u      0.000s      0.045w      2 calls
HF: Form S/X                        :      0.000u      0.000s      0.000w      2 calls
HF: Guess                           :      0.267u      0.000s      0.163w      2 calls
SAD Guess                           :      0.200u      0.000s      0.119w      2 calls
HF: Form G                          :      0.000u      0.000s      0.001w     10 calls
JK: D                               :      0.000u      0.000s      0.000w     10 calls
JK: USO2AO                          :      0.000u      0.000s      0.000w     10 calls
JK: JK                              :      0.000u      0.000s      0.000w     10 calls
DFH: compute_JK()                   :      0.000u      0.000s      0.000w     10 calls
DFH: Grabbing AOs                   :      0.000u      0.000s      0.000w     10 calls
DFH: compute_J                      :      0.000u      0.000s      0.000w     10 calls
DFH: compute_K                      :      0.000u      0.000s      0.000w     10 calls
JK: AO2USO                          :      0.000u      0.000s      0.000w     10 calls
HF: Form F                          :      0.000u      0.000s      0.000w     10 calls
HF: Form D                          :      0.000u      0.000s      0.000w     10 calls
HF: DIIS                            :      0.000u      0.000s      0.018w      8 calls
DIISManager::add_entry              :      0.000u      0.000s      0.013w      8 calls
DIISManager::extrapolate            :      0.000u      0.000s      0.001w      8 calls
bMatrix setup                       :      0.000u      0.000s      0.000w      8 calls
bMatrix pseudoinverse               :      0.000u      0.000s      0.000w      8 calls
New vector                          :      0.000u      0.000s      0.000w      8 calls
HF: Form C                          :      0.000u      0.000s      0.000w      8 calls

--------------------------------------------------------------------------------------
DFH: sparsity prep                  :      0.033u      0.000s      0.019w      2 calls
DFH: initialize()                   :      0.133u      0.000s      0.086w      2 calls
| DFH: AO Construction              :      0.000u      0.000s      0.000w      2 calls
| DFH: AO-Met. Contraction          :      0.000u      0.000s      0.000w      2 calls
HF: Form core H                     :      0.017u      0.000s      0.045w      2 calls
HF: Form S/X                        :      0.000u      0.000s      0.000w      2 calls
HF: Guess                           :      0.267u      0.000s      0.163w      2 calls
| SAD Guess                         :      0.200u      0.000s      0.119w      2 calls
HF: Form G                          :      0.000u      0.000s      0.001w     10 calls
| JK: D                             :      0.000u      0.000s      0.000w     10 calls
| JK: USO2AO                        :      0.000u      0.000s      0.000w     10 calls
| JK: JK                            :      0.000u      0.000s      0.000w     10 calls
| | DFH: compute_JK()               :      0.000u      0.000s      0.000w     10 calls
| | | DFH: Grabbing AOs             :      0.000u      0.000s      0.000w     10 calls
| | | DFH: compute_J                :      0.000u      0.000s      0.000w     10 calls
| | | DFH: compute_K                :      0.000u      0.000s      0.000w     10 calls
| JK: AO2USO                        :      0.000u      0.000s      0.000w     10 calls
HF: Form F                          :      0.000u      0.000s      0.000w     10 calls
HF: Form D                          :      0.000u      0.000s      0.000w     10 calls
HF: DIIS                            :      0.000u      0.000s      0.018w      8 calls
| DIISManager::add_entry            :      0.000u      0.000s      0.013w      8 calls
| DIISManager::extrapolate          :      0.000u      0.000s      0.001w      8 calls
| | bMatrix setup                   :      0.000u      0.000s      0.000w      8 calls
| | bMatrix pseudoinverse           :      0.000u      0.000s      0.000w      8 calls
| | New vector                      :      0.000u      0.000s      0.000w      8 calls
HF: Form C                          :      0.000u      0.000s      0.000w      8 calls

**************************************************************************************

Host: kant

Timers On : Wed Oct 19 22:43:29 2022
Timers Off: Wed Oct 19 22:43:37 2022

Wall Time:        7.53 seconds

                                                       Time (seconds)
Module                                       User      System        Wall        Calls
DFH: sparsity prep                  :      0.033u      0.000s      0.019w      2 calls
DFH: initialize()                   :      0.133u      0.000s      0.083w      2 calls
DFH: AO Construction                :      0.000u      0.000s      0.000w      2 calls
DFH: AO-Met. Contraction            :      0.000u      0.000s      0.000w      2 calls
HF: Form core H                     :      0.017u      0.000s      0.041w      2 calls
HF: Form S/X                        :      0.000u      0.000s      0.000w      2 calls
HF: Guess                           :      0.267u      0.000s      0.163w      2 calls
SAD Guess                           :      0.200u      0.000s      0.121w      2 calls
HF: Form G                          :      0.000u      0.000s      0.001w     10 calls
JK: D                               :      0.000u      0.000s      0.000w     10 calls
JK: USO2AO                          :      0.000u      0.000s      0.000w     10 calls
JK: JK                              :      0.000u      0.000s      0.000w     10 calls
DFH: compute_JK()                   :      0.000u      0.000s      0.000w     10 calls
DFH: Grabbing AOs                   :      0.000u      0.000s      0.000w     10 calls
DFH: compute_J                      :      0.000u      0.000s      0.000w     10 calls
DFH: compute_K                      :      0.000u      0.000s      0.000w     10 calls
JK: AO2USO                          :      0.000u      0.000s      0.000w     10 calls
HF: Form F                          :      0.000u      0.000s      0.000w     10 calls
HF: Form D                          :      0.000u      0.000s      0.000w     10 calls
HF: DIIS                            :      0.017u      0.000s      0.012w      8 calls
DIISManager::add_entry              :      0.000u      0.000s      0.008w      8 calls
DIISManager::extrapolate            :      0.017u      0.000s      0.000w      8 calls
bMatrix setup                       :      0.000u      0.000s      0.000w      8 calls
bMatrix pseudoinverse               :      0.017u      0.000s      0.000w      8 calls
New vector                          :      0.000u      0.000s      0.000w      8 calls
HF: Form C                          :      0.000u      0.000s      0.000w      8 calls

--------------------------------------------------------------------------------------
DFH: sparsity prep                  :      0.033u      0.000s      0.019w      2 calls
DFH: initialize()                   :      0.133u      0.000s      0.083w      2 calls
| DFH: AO Construction              :      0.000u      0.000s      0.000w      2 calls
| DFH: AO-Met. Contraction          :      0.000u      0.000s      0.000w      2 calls
HF: Form core H                     :      0.017u      0.000s      0.041w      2 calls
HF: Form S/X                        :      0.000u      0.000s      0.000w      2 calls
HF: Guess                           :      0.267u      0.000s      0.163w      2 calls
| SAD Guess                         :      0.200u      0.000s      0.121w      2 calls
HF: Form G                          :      0.000u      0.000s      0.001w     10 calls
| JK: D                             :      0.000u      0.000s      0.000w     10 calls
| JK: USO2AO                        :      0.000u      0.000s      0.000w     10 calls
| JK: JK                            :      0.000u      0.000s      0.000w     10 calls
| | DFH: compute_JK()               :      0.000u      0.000s      0.000w     10 calls
| | | DFH: Grabbing AOs             :      0.000u      0.000s      0.000w     10 calls
| | | DFH: compute_J                :      0.000u      0.000s      0.000w     10 calls
| | | DFH: compute_K                :      0.000u      0.000s      0.000w     10 calls
| JK: AO2USO                        :      0.000u      0.000s      0.000w     10 calls
HF: Form F                          :      0.000u      0.000s      0.000w     10 calls
HF: Form D                          :      0.000u      0.000s      0.000w     10 calls
HF: DIIS                            :      0.017u      0.000s      0.012w      8 calls
| DIISManager::add_entry            :      0.000u      0.000s      0.008w      8 calls
| DIISManager::extrapolate          :      0.017u      0.000s      0.000w      8 calls
| | bMatrix setup                   :      0.000u      0.000s      0.000w      8 calls
| | bMatrix pseudoinverse           :      0.017u      0.000s      0.000w      8 calls
| | New vector                      :      0.000u      0.000s      0.000w      8 calls
HF: Form C                          :      0.000u      0.000s      0.000w      8 calls

**************************************************************************************

Host: kant

Timers On : Wed Oct 19 22:53:30 2022
Timers Off: Wed Oct 19 22:53:36 2022

Wall Time:        5.84 seconds

                                                       Time (seconds)
Module                                       User      System        Wall        Calls
DFH: sparsity prep                  :      0.033u      0.000s      0.019w      2 calls
DFH: initialize()                   :      0.133u      0.000s      0.079w      2 calls
DFH: AO Construction                :      0.000u      0.000s      0.000w      2 calls
DFH: AO-Met. Contraction            :      0.000u      0.000s      0.000w      2 calls
HF: Form core H                     :      0.000u      0.000s      0.041w      2 calls
HF: Form S/X                        :      0.000u      0.000s      0.000w      2 calls
HF: Guess                           :      0.250u      0.017s      0.158w      2 calls
SAD Guess                           :      0.200u      0.000s      0.125w      2 calls
HF: Form G                          :      0.000u      0.000s      0.001w     10 calls
JK: D                               :      0.000u      0.000s      0.000w     10 calls
JK: USO2AO                          :      0.000u      0.000s      0.000w     10 calls
JK: JK                              :      0.000u      0.000s      0.000w     10 calls
DFH: compute_JK()                   :      0.000u      0.000s      0.000w     10 calls
DFH: Grabbing AOs                   :      0.000u      0.000s      0.000w     10 calls
DFH: compute_J                      :      0.000u      0.000s      0.000w     10 calls
DFH: compute_K                      :      0.000u      0.000s      0.000w     10 calls
JK: AO2USO                          :      0.000u      0.000s      0.000w     10 calls
HF: Form F                          :      0.000u      0.000s      0.000w     10 calls
HF: Form D                          :      0.000u      0.000s      0.000w     10 calls
HF: DIIS                            :      0.000u      0.000s      0.010w      8 calls
DIISManager::add_entry              :      0.000u      0.000s      0.007w      8 calls
DIISManager::extrapolate            :      0.000u      0.000s      0.000w      8 calls
bMatrix setup                       :      0.000u      0.000s      0.000w      8 calls
bMatrix pseudoinverse               :      0.000u      0.000s      0.000w      8 calls
New vector                          :      0.000u      0.000s      0.000w      8 calls
HF: Form C                          :      0.000u      0.000s      0.000w      8 calls

--------------------------------------------------------------------------------------
DFH: sparsity prep                  :      0.033u      0.000s      0.019w      2 calls
DFH: initialize()                   :      0.133u      0.000s      0.079w      2 calls
| DFH: AO Construction              :      0.000u      0.000s      0.000w      2 calls
| DFH: AO-Met. Contraction          :      0.000u      0.000s      0.000w      2 calls
HF: Form core H                     :      0.000u      0.000s      0.041w      2 calls
HF: Form S/X                        :      0.000u      0.000s      0.000w      2 calls
HF: Guess                           :      0.250u      0.017s      0.158w      2 calls
| SAD Guess                         :      0.200u      0.000s      0.125w      2 calls
HF: Form G                          :      0.000u      0.000s      0.001w     10 calls
| JK: D                             :      0.000u      0.000s      0.000w     10 calls
| JK: USO2AO                        :      0.000u      0.000s      0.000w     10 calls
| JK: JK                            :      0.000u      0.000s      0.000w     10 calls
| | DFH: compute_JK()               :      0.000u      0.000s      0.000w     10 calls
| | | DFH: Grabbing AOs             :      0.000u      0.000s      0.000w     10 calls
| | | DFH: compute_J                :      0.000u      0.000s      0.000w     10 calls
| | | DFH: compute_K                :      0.000u      0.000s      0.000w     10 calls
| JK: AO2USO                        :      0.000u      0.000s      0.000w     10 calls
HF: Form F                          :      0.000u      0.000s      0.000w     10 calls
HF: Form D                          :      0.000u      0.000s      0.000w     10 calls
HF: DIIS                            :      0.000u      0.000s      0.010w      8 calls
| DIISManager::add_entry            :      0.000u      0.000s      0.007w      8 calls
| DIISManager::extrapolate          :      0.000u      0.000s      0.000w      8 calls
| | bMatrix setup                   :      0.000u      0.000s      0.000w      8 calls
| | bMatrix pseudoinverse           :      0.000u      0.000s      0.000w      8 calls
| | New vector                      :      0.000u      0.000s      0.000w      8 calls
HF: Form C                          :      0.000u      0.000s      0.000w      8 calls

**************************************************************************************

Host: kant

Timers On : Wed Oct 19 22:57:23 2022
Timers Off: Wed Oct 19 22:57:29 2022

Wall Time:        6.23 seconds

                                                       Time (seconds)
Module                                       User      System        Wall        Calls
DFH: sparsity prep                  :      0.033u      0.000s      0.019w      2 calls
DFH: initialize()                   :      0.150u      0.000s      0.094w      2 calls
DFH: AO Construction                :      0.000u      0.000s      0.000w      2 calls
DFH: AO-Met. Contraction            :      0.000u      0.000s      0.000w      2 calls
HF: Form core H                     :      0.000u      0.000s      0.053w      2 calls
HF: Form S/X                        :      0.000u      0.000s      0.000w      2 calls
HF: Guess                           :      0.250u      0.000s      0.153w      2 calls
SAD Guess                           :      0.200u      0.000s      0.119w      2 calls
HF: Form G                          :      0.000u      0.000s      0.001w     10 calls
JK: D                               :      0.000u      0.000s      0.000w     10 calls
JK: USO2AO                          :      0.000u      0.000s      0.000w     10 calls
JK: JK                              :      0.000u      0.000s      0.000w     10 calls
DFH: compute_JK()                   :      0.000u      0.000s      0.000w     10 calls
DFH: Grabbing AOs                   :      0.000u      0.000s      0.000w     10 calls
DFH: compute_J                      :      0.000u      0.000s      0.000w     10 calls
DFH: compute_K                      :      0.000u      0.000s      0.000w     10 calls
JK: AO2USO                          :      0.000u      0.000s      0.000w     10 calls
HF: Form F                          :      0.000u      0.000s      0.000w     10 calls
HF: Form D                          :      0.000u      0.000s      0.000w     10 calls
HF: DIIS                            :      0.000u      0.000s      0.011w      8 calls
DIISManager::add_entry              :      0.000u      0.000s      0.008w      8 calls
DIISManager::extrapolate            :      0.000u      0.000s      0.000w      8 calls
bMatrix setup                       :      0.000u      0.000s      0.000w      8 calls
bMatrix pseudoinverse               :      0.000u      0.000s      0.000w      8 calls
New vector                          :      0.000u      0.000s      0.000w      8 calls
HF: Form C                          :      0.000u      0.000s      0.000w      8 calls

--------------------------------------------------------------------------------------
DFH: sparsity prep                  :      0.033u      0.000s      0.019w      2 calls
DFH: initialize()                   :      0.150u      0.000s      0.094w      2 calls
| DFH: AO Construction              :      0.000u      0.000s      0.000w      2 calls
| DFH: AO-Met. Contraction          :      0.000u      0.000s      0.000w      2 calls
HF: Form core H                     :      0.000u      0.000s      0.053w      2 calls
HF: Form S/X                        :      0.000u      0.000s      0.000w      2 calls
HF: Guess                           :      0.250u      0.000s      0.153w      2 calls
| SAD Guess                         :      0.200u      0.000s      0.119w      2 calls
HF: Form G                          :      0.000u      0.000s      0.001w     10 calls
| JK: D                             :      0.000u      0.000s      0.000w     10 calls
| JK: USO2AO                        :      0.000u      0.000s      0.000w     10 calls
| JK: JK                            :      0.000u      0.000s      0.000w     10 calls
| | DFH: compute_JK()               :      0.000u      0.000s      0.000w     10 calls
| | | DFH: Grabbing AOs             :      0.000u      0.000s      0.000w     10 calls
| | | DFH: compute_J                :      0.000u      0.000s      0.000w     10 calls
| | | DFH: compute_K                :      0.000u      0.000s      0.000w     10 calls
| JK: AO2USO                        :      0.000u      0.000s      0.000w     10 calls
HF: Form F                          :      0.000u      0.000s      0.000w     10 calls
HF: Form D                          :      0.000u      0.000s      0.000w     10 calls
HF: DIIS                            :      0.000u      0.000s      0.011w      8 calls
| DIISManager::add_entry            :      0.000u      0.000s      0.008w      8 calls
| DIISManager::extrapolate          :      0.000u      0.000s      0.000w      8 calls
| | bMatrix setup                   :      0.000u      0.000s      0.000w      8 calls
| | bMatrix pseudoinverse           :      0.000u      0.000s      0.000w      8 calls
| | New vector                      :      0.000u      0.000s      0.000w      8 calls
HF: Form C                          :      0.000u      0.000s      0.000w      8 calls

**************************************************************************************
